<?xml version="1.0" encoding="UTF-8"?>

<!-- generated on 2024-01-17 03:09:14 by Eclipse SUMO GUI Version 1.19.0
<configuration xmlns:xsi="http://www.w3.org/2001/XMLSchema-instance" xsi:noNamespaceSchemaLocation="http://sumo.dlr.de/xsd/sumoConfiguration.xsd">

    <input>
        <net-file value="/home/citiai-cygnus/sumo-rl/nets/SUMO5/MODIFIEDCOPY.net.xml"/>
        <route-files value="/home/citiai-cygnus/sumo-rl/nets/SUMO5/LAST.rou.xml"/>
        <additional-files value="/home/citiai-cygnus/sumo-rl/nets/SUMO5/backup22.add.xml"/>
    </input>

    <output>
        <summary-output value="/home/citiai-cygnus/sumo-rl/nets/SUMO5/DATA/Summary.xml"/>
        <tripinfo-output value="/home/citiai-cygnus/sumo-rl/nets/SUMO5/DATA/Tripinfo.xml"/>
        <statistic-output value="/home/citiai-cygnus/sumo-rl/nets/SUMO5/DATA/Statistic.xml"/>
    </output>

</configuration>
-->

<tripinfos xmlns:xsi="http://www.w3.org/2001/XMLSchema-instance" xsi:noNamespaceSchemaLocation="http://sumo.dlr.de/xsd/tripinfo_file.xsd">
    <tripinfo id="f_1199.0" depart="54.00" departLane="E24_0" departPos="5.10" departSpeed="0.00" departDelay="0.29" arrival="108.00" arrivalLane="E33_0" arrivalPos="81.84" arrivalSpeed="11.58" duration="54.00" routeLength="538.72" waitingTime="0.00" waitingCount="0" stopTime="0.00" timeLoss="9.18" rerouteNo="2" devices="tripinfo_f_1199.0 routing_f_1199.0" vType="t_2" speedFactor="0.89" vaporized=""/>
    <tripinfo id="f_1201.0" depart="9.00" departLane="-E3_0" departPos="5.10" departSpeed="0.00" departDelay="0.12" arrival="135.00" arrivalLane="E5_0" arrivalPos="49.00" arrivalSpeed="14.72" duration="126.00" routeLength="158.73" waitingTime="104.00" waitingCount="1" stopTime="0.00" timeLoss="114.37" rerouteNo="0" devices="tripinfo_f_1201.0 routing_f_1201.0" vType="t_2" speedFactor="1.06" vaporized=""/>
    <tripinfo id="f_32.0" depart="59.00" departLane="-E5_0" departPos="5.10" departSpeed="0.00" departDelay="0.16" arrival="137.00" arrivalLane="E3_0" arrivalPos="70.52" arrivalSpeed="11.79" duration="78.00" routeLength="158.20" waitingTime="57.00" waitingCount="1" stopTime="0.00" timeLoss="65.11" rerouteNo="0" devices="tripinfo_f_32.0 routing_f_32.0" vType="t_0" speedFactor="0.94" vaporized=""/>
    <tripinfo id="f_31.0" depart="122.00" departLane="-E3_0" departPos="5.10" departSpeed="0.00" departDelay="0.71" arrival="139.00" arrivalLane="E5_0" arrivalPos="49.00" arrivalSpeed="13.86" duration="17.00" routeLength="158.73" waitingTime="0.00" waitingCount="0" stopTime="0.00" timeLoss="5.50" rerouteNo="0" devices="tripinfo_f_31.0 routing_f_31.0" vType="t_0" speedFactor="1.02" vaporized=""/>
    <tripinfo id="f_34.0" depart="80.00" departLane="-E26_0" departPos="5.10" departSpeed="0.00" departDelay="0.80" arrival="141.00" arrivalLane="E33_0" arrivalPos="81.84" arrivalSpeed="14.41" duration="61.00" routeLength="223.48" waitingTime="34.00" waitingCount="1" stopTime="0.00" timeLoss="46.43" rerouteNo="1" devices="tripinfo_f_34.0 routing_f_34.0" vType="t_0" speedFactor="1.12" vaporized=""/>
    <tripinfo id="f_27.0" depart="106.00" departLane="E7_0" departPos="5.10" departSpeed="0.00" departDelay="0.46" arrival="143.00" arrivalLane="E13.40_0" arrivalPos="167.46" arrivalSpeed="12.15" duration="37.00" routeLength="421.10" waitingTime="0.00" waitingCount="0" stopTime="0.00" timeLoss="4.43" rerouteNo="2" devices="tripinfo_f_27.0 routing_f_27.0" vType="t_0" speedFactor="0.94" vaporized=""/>
    <tripinfo id="f_23.0" depart="24.00" departLane="E12_0" departPos="5.10" departSpeed="0.00" departDelay="0.92" arrival="146.00" arrivalLane="E44.40_1" arrivalPos="152.78" arrivalSpeed="14.72" duration="122.00" routeLength="403.06" waitingTime="84.00" waitingCount="1" stopTime="0.00" timeLoss="94.83" rerouteNo="1" devices="tripinfo_f_23.0 routing_f_23.0" vType="t_0" speedFactor="1.08" vaporized=""/>
    <tripinfo id="f_614.0" depart="77.00" departLane="E24_0" departPos="5.10" departSpeed="0.00" departDelay="0.93" arrival="146.00" arrivalLane="E37_0" arrivalPos="258.76" arrivalSpeed="13.86" duration="69.00" routeLength="640.58" waitingTime="13.00" waitingCount="1" stopTime="0.00" timeLoss="23.79" rerouteNo="1" devices="tripinfo_f_614.0 routing_f_614.0" vType="t_1" speedFactor="1.05" vaporized=""/>
    <tripinfo id="f_29.0" depart="60.00" departLane="E24_0" departPos="5.10" departSpeed="0.00" departDelay="0.66" arrival="150.00" arrivalLane="E37_0" arrivalPos="258.76" arrivalSpeed="11.30" duration="90.00" routeLength="640.58" waitingTime="24.00" waitingCount="1" stopTime="0.00" timeLoss="34.87" rerouteNo="1" devices="tripinfo_f_29.0 routing_f_29.0" vType="t_0" speedFactor="0.86" vaporized=""/>
    <tripinfo id="f_616.0" depart="134.00" departLane="-E3_0" departPos="5.10" departSpeed="0.00" departDelay="0.49" arrival="151.00" arrivalLane="E5_0" arrivalPos="49.00" arrivalSpeed="11.72" duration="17.00" routeLength="158.73" waitingTime="0.00" waitingCount="0" stopTime="0.00" timeLoss="3.66" rerouteNo="0" devices="tripinfo_f_616.0 routing_f_616.0" vType="t_1" speedFactor="0.89" vaporized=""/>
    <tripinfo id="f_1195.0" depart="122.00" departLane="E19_0" departPos="5.10" departSpeed="0.00" departDelay="0.35" arrival="158.00" arrivalLane="E44.40_1" arrivalPos="152.78" arrivalSpeed="13.43" duration="36.00" routeLength="431.44" waitingTime="0.00" waitingCount="0" stopTime="0.00" timeLoss="5.09" rerouteNo="1" devices="tripinfo_f_1195.0 routing_f_1195.0" vType="t_2" speedFactor="1.01" vaporized=""/>
    <tripinfo id="f_612.1" depart="139.00" departLane="E7_0" departPos="5.10" departSpeed="0.00" departDelay="0.57" arrival="164.00" arrivalLane="E12.39_0" arrivalPos="80.30" arrivalSpeed="11.70" duration="25.00" routeLength="245.25" waitingTime="0.00" waitingCount="0" stopTime="0.00" timeLoss="3.94" rerouteNo="2" devices="tripinfo_f_612.1 routing_f_612.1" vType="t_1" speedFactor="0.87" vaporized=""/>
    <tripinfo id="f_620.0" depart="39.00" departLane="-E33_0" departPos="5.10" departSpeed="0.00" departDelay="0.36" arrival="179.00" arrivalLane="E37_1" arrivalPos="258.76" arrivalSpeed="13.34" duration="140.00" routeLength="791.18" waitingTime="74.00" waitingCount="1" stopTime="0.00" timeLoss="85.05" rerouteNo="2" devices="tripinfo_f_620.0 routing_f_620.0" vType="t_1" speedFactor="1.05" vaporized=""/>
    <tripinfo id="f_34.1" depart="93.00" departLane="-E26_0" departPos="5.10" departSpeed="0.00" departDelay="0.37" arrival="190.00" arrivalLane="E31_3" arrivalPos="202.19" arrivalSpeed="11.84" duration="97.00" routeLength="739.75" waitingTime="23.00" waitingCount="1" stopTime="0.00" timeLoss="37.58" rerouteNo="2" devices="tripinfo_f_34.1 routing_f_34.1" vType="t_0" speedFactor="0.93" vaporized=""/>
    <tripinfo id="f_608.0" depart="159.00" departLane="E12_0" departPos="5.10" departSpeed="0.00" departDelay="0.24" arrival="193.00" arrivalLane="E44.40_1" arrivalPos="152.78" arrivalSpeed="12.82" duration="34.00" routeLength="403.06" waitingTime="0.00" waitingCount="0" stopTime="0.00" timeLoss="4.55" rerouteNo="1" devices="tripinfo_f_608.0 routing_f_608.0" vType="t_1" speedFactor="1.01" vaporized=""/>
    <tripinfo id="f_618.1" depart="100.00" departLane="-E43_0" departPos="5.10" departSpeed="0.00" departDelay="0.52" arrival="200.00" arrivalLane="E10_0" arrivalPos="49.33" arrivalSpeed="12.67" duration="100.00" routeLength="601.64" waitingTime="36.00" waitingCount="2" stopTime="0.00" timeLoss="52.75" rerouteNo="2" devices="tripinfo_f_618.1 routing_f_618.1" vType="t_1" speedFactor="0.94" vaporized=""/>
    <tripinfo id="f_35.0" depart="153.00" departLane="-E33_0" departPos="5.10" departSpeed="0.00" departDelay="0.36" arrival="219.00" arrivalLane="E31_3" arrivalPos="202.19" arrivalSpeed="12.73" duration="66.00" routeLength="734.69" waitingTime="0.00" waitingCount="0" stopTime="0.00" timeLoss="7.57" rerouteNo="2" devices="tripinfo_f_35.0 routing_f_35.0" vType="t_0" speedFactor="0.93" vaporized=""/>
    <tripinfo id="f_26.0" depart="143.00" departLane="E22_0" departPos="5.10" departSpeed="0.00" departDelay="0.92" arrival="229.00" arrivalLane="E13.40_0" arrivalPos="167.46" arrivalSpeed="13.05" duration="86.00" routeLength="274.23" waitingTime="55.00" waitingCount="1" stopTime="0.00" timeLoss="64.21" rerouteNo="1" devices="tripinfo_f_26.0 routing_f_26.0" vType="t_0" speedFactor="0.95" vaporized=""/>
    <tripinfo id="f_1203.0" depart="76.00" departLane="-E43_0" departPos="5.10" departSpeed="0.00" departDelay="0.35" arrival="234.00" arrivalLane="E37_0" arrivalPos="258.76" arrivalSpeed="13.85" duration="158.00" routeLength="987.85" waitingTime="68.00" waitingCount="2" stopTime="0.00" timeLoss="87.60" rerouteNo="4" devices="tripinfo_f_1203.0 routing_f_1203.0" vType="t_2" speedFactor="1.03" vaporized=""/>
    <tripinfo id="f_618.0" depart="92.00" departLane="-E43_0" departPos="5.10" departSpeed="0.00" departDelay="0.69" arrival="234.00" arrivalLane="E31_3" arrivalPos="202.19" arrivalSpeed="12.67" duration="142.00" routeLength="931.36" waitingTime="53.00" waitingCount="2" stopTime="0.00" timeLoss="73.23" rerouteNo="4" devices="tripinfo_f_618.0 routing_f_618.0" vType="t_1" speedFactor="0.99" vaporized=""/>
    <tripinfo id="f_609.0" depart="114.00" departLane="E13_0" departPos="5.10" departSpeed="0.00" departDelay="0.27" arrival="238.00" arrivalLane="E26_0" arrivalPos="104.89" arrivalSpeed="15.18" duration="124.00" routeLength="1250.66" waitingTime="23.00" waitingCount="1" stopTime="0.00" timeLoss="44.40" rerouteNo="5" devices="tripinfo_f_609.0 routing_f_609.0" vType="t_1" speedFactor="1.16" vaporized=""/>
    <tripinfo id="f_1193.0" depart="27.00" departLane="E12_0" departPos="5.10" departSpeed="0.00" departDelay="3.16" arrival="244.00" arrivalLane="E26_0" arrivalPos="104.89" arrivalSpeed="13.73" duration="217.00" routeLength="1238.16" waitingTime="106.00" waitingCount="2" stopTime="0.00" timeLoss="129.55" rerouteNo="5" devices="tripinfo_f_1193.0 routing_f_1193.0" vType="t_2" speedFactor="1.03" vaporized=""/>
    <tripinfo id="f_35.1" depart="156.00" departLane="-E33_0" departPos="5.10" departSpeed="0.00" departDelay="1.81" arrival="264.00" arrivalLane="E13.40_0" arrivalPos="167.46" arrivalSpeed="15.65" duration="108.00" routeLength="1370.37" waitingTime="4.00" waitingCount="1" stopTime="0.00" timeLoss="21.50" rerouteNo="4" devices="tripinfo_f_35.1 routing_f_35.1" vType="t_0" speedFactor="1.15" vaporized=""/>
    <tripinfo id="f_24.1" depart="135.00" departLane="E13_0" departPos="5.10" departSpeed="0.00" departDelay="0.27" arrival="301.00" arrivalLane="E26_0" arrivalPos="104.89" arrivalSpeed="11.08" duration="166.00" routeLength="1250.66" waitingTime="40.00" waitingCount="1" stopTime="0.00" timeLoss="54.95" rerouteNo="5" devices="tripinfo_f_24.1 routing_f_24.1" vType="t_0" speedFactor="0.83" vaporized=""/>
    <tripinfo id="f_24.0" depart="68.00" departLane="E13_0" departPos="5.10" departSpeed="0.00" departDelay="0.20" arrival="312.00" arrivalLane="E5_0" arrivalPos="49.00" arrivalSpeed="14.61" duration="244.00" routeLength="511.46" waitingTime="184.00" waitingCount="4" stopTime="0.00" timeLoss="208.69" rerouteNo="2" devices="tripinfo_f_24.0 routing_f_24.0" vType="t_0" speedFactor="1.09" vaporized=""/>
    <tripinfo id="f_619.0" depart="13.00" departLane="-E26_0" departPos="5.10" departSpeed="0.00" departDelay="0.42" arrival="314.00" arrivalLane="E43_0" arrivalPos="67.54" arrivalSpeed="11.86" duration="301.00" routeLength="453.12" waitingTime="247.00" waitingCount="3" stopTime="0.00" timeLoss="264.52" rerouteNo="1" devices="tripinfo_f_619.0 routing_f_619.0" vType="t_1" speedFactor="0.94" vaporized=""/>
    <tripinfo id="f_1201.1" depart="187.00" departLane="-E3_0" departPos="5.10" departSpeed="0.00" departDelay="0.46" arrival="315.00" arrivalLane="E5_0" arrivalPos="49.00" arrivalSpeed="14.07" duration="128.00" routeLength="158.73" waitingTime="106.00" waitingCount="1" stopTime="0.00" timeLoss="116.29" rerouteNo="0" devices="tripinfo_f_1201.1 routing_f_1201.1" vType="t_2" speedFactor="1.02" vaporized=""/>
    <tripinfo id="f_617.0" depart="237.00" departLane="-E5_0" departPos="5.10" departSpeed="0.00" departDelay="0.86" arrival="316.00" arrivalLane="E3_0" arrivalPos="70.52" arrivalSpeed="13.89" duration="79.00" routeLength="158.20" waitingTime="59.00" waitingCount="1" stopTime="0.00" timeLoss="67.54" rerouteNo="0" devices="tripinfo_f_617.0 routing_f_617.0" vType="t_1" speedFactor="1.03" vaporized=""/>
    <tripinfo id="f_619.2" depart="287.00" departLane="-E26_0" departPos="5.10" departSpeed="0.00" departDelay="0.89" arrival="319.00" arrivalLane="E33_0" arrivalPos="81.84" arrivalSpeed="13.42" duration="32.00" routeLength="223.48" waitingTime="6.00" waitingCount="1" stopTime="0.00" timeLoss="15.66" rerouteNo="1" devices="tripinfo_f_619.2 routing_f_619.2" vType="t_1" speedFactor="1.00" vaporized=""/>
    <tripinfo id="f_612.2" depart="260.00" departLane="E7_0" departPos="5.10" departSpeed="0.00" departDelay="0.82" arrival="338.00" arrivalLane="E13.40_0" arrivalPos="167.46" arrivalSpeed="13.77" duration="78.00" routeLength="421.10" waitingTime="37.00" waitingCount="1" stopTime="0.00" timeLoss="48.41" rerouteNo="2" devices="tripinfo_f_612.2 routing_f_612.2" vType="t_1" speedFactor="1.04" vaporized=""/>
    <tripinfo id="f_620.1" depart="323.00" departLane="-E33_0" departPos="5.10" departSpeed="0.00" departDelay="0.09" arrival="341.00" arrivalLane="E26_0" arrivalPos="104.89" arrivalSpeed="15.64" duration="18.00" routeLength="223.54" waitingTime="0.00" waitingCount="0" stopTime="0.00" timeLoss="4.18" rerouteNo="0" devices="tripinfo_f_620.1 routing_f_620.1" vType="t_1" speedFactor="1.17" vaporized=""/>
    <tripinfo id="f_1199.1" depart="96.00" departLane="E24_0" departPos="5.10" departSpeed="0.00" departDelay="0.57" arrival="343.00" arrivalLane="E27_1" arrivalPos="159.69" arrivalSpeed="12.13" duration="247.00" routeLength="396.11" waitingTime="205.00" waitingCount="1" stopTime="0.00" timeLoss="214.33" rerouteNo="0" devices="tripinfo_f_1199.1 routing_f_1199.1" vType="t_2" speedFactor="0.88" vaporized=""/>
    <tripinfo id="f_29.1" depart="140.00" departLane="E24_0" departPos="5.10" departSpeed="0.00" departDelay="0.00" arrival="343.00" arrivalLane="E27_2" arrivalPos="159.69" arrivalSpeed="11.65" duration="203.00" routeLength="396.11" waitingTime="162.00" waitingCount="1" stopTime="0.00" timeLoss="171.06" rerouteNo="0" devices="tripinfo_f_29.1 routing_f_29.1" vType="t_0" speedFactor="0.92" vaporized=""/>
    <tripinfo id="f_614.1" depart="150.00" departLane="E24_0" departPos="5.10" departSpeed="0.00" departDelay="0.18" arrival="345.00" arrivalLane="E27_1" arrivalPos="159.69" arrivalSpeed="15.49" duration="195.00" routeLength="396.11" waitingTime="156.00" waitingCount="1" stopTime="0.00" timeLoss="169.15" rerouteNo="0" devices="tripinfo_f_614.1 routing_f_614.1" vType="t_1" speedFactor="1.13" vaporized=""/>
    <tripinfo id="f_1198.0" depart="240.00" departLane="E32_0" departPos="5.10" departSpeed="0.00" departDelay="0.38" arrival="345.00" arrivalLane="E37_0" arrivalPos="258.76" arrivalSpeed="14.47" duration="105.00" routeLength="417.18" waitingTime="67.00" waitingCount="1" stopTime="0.00" timeLoss="76.43" rerouteNo="1" devices="tripinfo_f_1198.0 routing_f_1198.0" vType="t_2" speedFactor="1.09" vaporized=""/>
    <tripinfo id="f_613.0" depart="227.00" departLane="E32_0" departPos="5.10" departSpeed="0.00" departDelay="0.34" arrival="347.00" arrivalLane="E31_2" arrivalPos="202.19" arrivalSpeed="12.47" duration="120.00" routeLength="391.63" waitingTime="78.00" waitingCount="1" stopTime="0.00" timeLoss="87.87" rerouteNo="0" devices="tripinfo_f_613.0 routing_f_613.0" vType="t_1" speedFactor="0.90" vaporized=""/>
    <tripinfo id="f_1195.1" depart="211.00" departLane="E19_0" departPos="5.10" departSpeed="0.00" departDelay="0.61" arrival="356.00" arrivalLane="E44.40_1" arrivalPos="152.78" arrivalSpeed="16.30" duration="145.00" routeLength="430.58" waitingTime="107.00" waitingCount="1" stopTime="0.00" timeLoss="117.75" rerouteNo="1" devices="tripinfo_f_1195.1 routing_f_1195.1" vType="t_2" speedFactor="1.18" vaporized=""/>
    <tripinfo id="f_610.0" depart="266.00" departLane="E19_0" departPos="5.10" departSpeed="0.00" departDelay="0.03" arrival="358.00" arrivalLane="E44.40_2" arrivalPos="152.78" arrivalSpeed="14.05" duration="92.00" routeLength="435.03" waitingTime="53.00" waitingCount="1" stopTime="0.00" timeLoss="61.42" rerouteNo="1" devices="tripinfo_f_610.0 routing_f_610.0" vType="t_1" speedFactor="1.04" vaporized=""/>
    <tripinfo id="f_1198.1" depart="318.00" departLane="E32_0" departPos="5.10" departSpeed="0.00" departDelay="0.86" arrival="360.00" arrivalLane="E37_0" arrivalPos="258.76" arrivalSpeed="11.79" duration="42.00" routeLength="417.18" waitingTime="0.00" waitingCount="0" stopTime="0.00" timeLoss="5.93" rerouteNo="1" devices="tripinfo_f_1198.1 routing_f_1198.1" vType="t_2" speedFactor="0.85" vaporized=""/>
    <tripinfo id="f_619.1" depart="20.00" departLane="-E26_0" departPos="5.10" departSpeed="0.00" departDelay="0.20" arrival="368.00" arrivalLane="E10_0" arrivalPos="49.33" arrivalSpeed="13.39" duration="348.00" routeLength="865.27" waitingTime="259.00" waitingCount="3" stopTime="0.00" timeLoss="285.09" rerouteNo="2" devices="tripinfo_f_619.1 routing_f_619.1" vType="t_1" speedFactor="1.01" vaporized=""/>
    <tripinfo id="f_609.1" depart="123.00" departLane="E13_0" departPos="5.10" departSpeed="0.00" departDelay="0.04" arrival="369.00" arrivalLane="E10_0" arrivalPos="49.33" arrivalSpeed="13.53" duration="246.00" routeLength="845.20" waitingTime="156.00" waitingCount="3" stopTime="0.00" timeLoss="182.27" rerouteNo="3" devices="tripinfo_f_609.1 routing_f_609.1" vType="t_1" speedFactor="0.97" vaporized=""/>
    <tripinfo id="f_1203.2" depart="293.00" departLane="-E43_0" departPos="5.10" departSpeed="0.00" departDelay="0.50" arrival="373.00" arrivalLane="E26_0" arrivalPos="104.89" arrivalSpeed="10.55" duration="80.00" routeLength="400.04" waitingTime="26.00" waitingCount="3" stopTime="0.00" timeLoss="44.15" rerouteNo="3" devices="tripinfo_f_1203.2 routing_f_1203.2" vType="t_2" speedFactor="0.85" vaporized=""/>
    <tripinfo id="f_618.2" depart="209.00" departLane="-E43_0" departPos="5.10" departSpeed="0.00" departDelay="0.60" arrival="380.00" arrivalLane="E10_0" arrivalPos="49.33" arrivalSpeed="12.52" duration="171.00" routeLength="601.64" waitingTime="108.00" waitingCount="2" stopTime="0.00" timeLoss="125.05" rerouteNo="2" devices="tripinfo_f_618.2 routing_f_618.2" vType="t_1" speedFactor="0.97" vaporized=""/>
    <tripinfo id="f_1204.0" depart="221.00" departLane="-E26_0" departPos="5.10" departSpeed="0.00" departDelay="0.06" arrival="389.00" arrivalLane="E27_0" arrivalPos="159.69" arrivalSpeed="14.89" duration="168.00" routeLength="523.66" waitingTime="116.00" waitingCount="2" stopTime="0.00" timeLoss="131.55" rerouteNo="2" devices="tripinfo_f_1204.0 routing_f_1204.0" vType="t_2" speedFactor="1.10" vaporized=""/>
    <tripinfo id="f_620.2" depart="328.00" departLane="-E33_0" departPos="5.10" departSpeed="0.00" departDelay="0.40" arrival="392.00" arrivalLane="E27_0" arrivalPos="159.69" arrivalSpeed="13.60" duration="64.00" routeLength="518.60" waitingTime="15.00" waitingCount="1" stopTime="0.00" timeLoss="25.13" rerouteNo="2" devices="tripinfo_f_620.2 routing_f_620.2" vType="t_1" speedFactor="1.00" vaporized=""/>
    <tripinfo id="f_1203.1" depart="180.00" departLane="-E43_0" departPos="5.10" departSpeed="0.00" departDelay="0.93" arrival="394.00" arrivalLane="E27_0" arrivalPos="159.69" arrivalSpeed="16.19" duration="214.00" routeLength="715.27" waitingTime="149.00" waitingCount="2" stopTime="0.00" timeLoss="168.40" rerouteNo="4" devices="tripinfo_f_1203.1 routing_f_1203.1" vType="t_2" speedFactor="1.17" vaporized=""/>
    <tripinfo id="f_29.2" depart="155.00" departLane="E24_0" departPos="5.10" departSpeed="0.00" departDelay="0.08" arrival="395.00" arrivalLane="E37_0" arrivalPos="258.76" arrivalSpeed="15.51" duration="240.00" routeLength="640.58" waitingTime="183.00" waitingCount="2" stopTime="0.00" timeLoss="199.72" rerouteNo="1" devices="tripinfo_f_29.2 routing_f_29.2" vType="t_0" speedFactor="1.18" vaporized=""/>
    <tripinfo id="f_1204.2" depart="325.00" departLane="-E26_0" departPos="5.10" departSpeed="0.00" departDelay="0.53" arrival="409.00" arrivalLane="E37_0" arrivalPos="258.76" arrivalSpeed="14.84" duration="84.00" routeLength="796.24" waitingTime="18.00" waitingCount="1" stopTime="0.00" timeLoss="30.62" rerouteNo="2" devices="tripinfo_f_1204.2 routing_f_1204.2" vType="t_2" speedFactor="1.10" vaporized=""/>
    <tripinfo id="f_34.2" depart="329.00" departLane="-E26_0" departPos="5.10" departSpeed="0.00" departDelay="0.70" arrival="410.00" arrivalLane="E37_3" arrivalPos="258.76" arrivalSpeed="12.80" duration="81.00" routeLength="796.24" waitingTime="9.00" waitingCount="1" stopTime="0.00" timeLoss="22.11" rerouteNo="2" devices="tripinfo_f_34.2 routing_f_34.2" vType="t_0" speedFactor="1.00" vaporized=""/>
    <tripinfo id="f_610.2" depart="379.00" departLane="E19_0" departPos="5.10" departSpeed="0.00" departDelay="0.23" arrival="412.00" arrivalLane="E44.40_1" arrivalPos="152.78" arrivalSpeed="14.77" duration="33.00" routeLength="431.44" waitingTime="0.00" waitingCount="0" stopTime="0.00" timeLoss="4.23" rerouteNo="1" devices="tripinfo_f_610.2 routing_f_610.2" vType="t_1" speedFactor="1.08" vaporized=""/>
    <tripinfo id="f_612.0" depart="27.00" departLane="E7_0" departPos="5.10" departSpeed="0.00" departDelay="0.43" arrival="414.00" arrivalLane="E31_3" arrivalPos="202.19" arrivalSpeed="10.93" duration="387.00" routeLength="1899.81" waitingTime="186.00" waitingCount="3" stopTime="0.00" timeLoss="220.58" rerouteNo="7" devices="tripinfo_f_612.0 routing_f_612.0" vType="t_1" speedFactor="0.83" vaporized=""/>
    <tripinfo id="f_1204.1" depart="290.00" departLane="-E26_0" departPos="5.10" departSpeed="0.00" departDelay="3.88" arrival="416.00" arrivalLane="E37_0" arrivalPos="258.76" arrivalSpeed="11.33" duration="126.00" routeLength="796.24" waitingTime="41.00" waitingCount="3" stopTime="0.00" timeLoss="60.75" rerouteNo="2" devices="tripinfo_f_1204.1 routing_f_1204.1" vType="t_2" speedFactor="0.90" vaporized=""/>
    <tripinfo id="f_23.1" depart="324.00" departLane="E12_0" departPos="5.10" departSpeed="0.00" departDelay="0.92" arrival="430.00" arrivalLane="E12.39_0" arrivalPos="80.30" arrivalSpeed="14.12" duration="106.00" routeLength="388.76" waitingTime="64.00" waitingCount="1" stopTime="0.00" timeLoss="78.46" rerouteNo="1" devices="tripinfo_f_23.1 routing_f_23.1" vType="t_0" speedFactor="1.02" vaporized=""/>
    <tripinfo id="f_610.1" depart="364.00" departLane="E19_0" departPos="5.10" departSpeed="0.00" departDelay="0.84" arrival="430.00" arrivalLane="E12.39_2" arrivalPos="80.30" arrivalSpeed="14.63" duration="66.00" routeLength="415.53" waitingTime="23.00" waitingCount="1" stopTime="0.00" timeLoss="39.05" rerouteNo="1" devices="tripinfo_f_610.1 routing_f_610.1" vType="t_1" speedFactor="1.14" vaporized=""/>
    <tripinfo id="f_1194.0" depart="185.00" departLane="E13_0" departPos="5.10" departSpeed="0.00" departDelay="0.02" arrival="431.00" arrivalLane="E12.39_1" arrivalPos="80.30" arrivalSpeed="13.19" duration="246.00" routeLength="399.09" waitingTime="195.00" waitingCount="2" stopTime="0.00" timeLoss="216.32" rerouteNo="1" devices="tripinfo_f_1194.0 routing_f_1194.0" vType="t_2" speedFactor="0.99" vaporized=""/>
    <tripinfo id="f_1196.1" depart="396.00" departLane="E22_0" departPos="5.10" departSpeed="0.00" departDelay="0.60" arrival="440.00" arrivalLane="E13.40_0" arrivalPos="167.46" arrivalSpeed="11.95" duration="44.00" routeLength="274.23" waitingTime="12.00" waitingCount="1" stopTime="0.00" timeLoss="21.82" rerouteNo="1" devices="tripinfo_f_1196.1 routing_f_1196.1" vType="t_2" speedFactor="0.94" vaporized=""/>
    <tripinfo id="f_1196.2" depart="402.00" departLane="E22_0" departPos="5.10" departSpeed="0.00" departDelay="0.81" arrival="492.00" arrivalLane="E5_0" arrivalPos="49.00" arrivalSpeed="11.71" duration="90.00" routeLength="487.33" waitingTime="33.00" waitingCount="2" stopTime="0.00" timeLoss="49.10" rerouteNo="2" devices="tripinfo_f_1196.2 routing_f_1196.2" vType="t_2" speedFactor="0.88" vaporized=""/>
    <tripinfo id="f_31.1" depart="461.00" departLane="-E3_0" departPos="5.10" departSpeed="0.00" departDelay="0.44" arrival="495.00" arrivalLane="E5_0" arrivalPos="49.00" arrivalSpeed="13.85" duration="34.00" routeLength="158.73" waitingTime="12.00" waitingCount="1" stopTime="0.00" timeLoss="22.73" rerouteNo="0" devices="tripinfo_f_31.1 routing_f_31.1" vType="t_0" speedFactor="1.06" vaporized=""/>
    <tripinfo id="f_34.3" depart="355.00" departLane="-E26_0" departPos="5.10" departSpeed="0.00" departDelay="0.12" arrival="498.00" arrivalLane="E33_0" arrivalPos="81.84" arrivalSpeed="12.32" duration="143.00" routeLength="223.48" waitingTime="116.00" waitingCount="1" stopTime="0.00" timeLoss="124.28" rerouteNo="1" devices="tripinfo_f_34.3 routing_f_34.3" vType="t_0" speedFactor="0.90" vaporized=""/>
    <tripinfo id="f_34.4" depart="449.00" departLane="-E26_0" departPos="5.10" departSpeed="0.00" departDelay="0.19" arrival="501.00" arrivalLane="E33_0" arrivalPos="81.84" arrivalSpeed="12.53" duration="52.00" routeLength="223.48" waitingTime="25.00" waitingCount="1" stopTime="0.00" timeLoss="34.76" rerouteNo="1" devices="tripinfo_f_34.4 routing_f_34.4" vType="t_0" speedFactor="0.94" vaporized=""/>
    <tripinfo id="f_619.4" depart="492.00" departLane="-E26_0" departPos="5.10" departSpeed="0.00" departDelay="0.85" arrival="512.00" arrivalLane="E33_0" arrivalPos="81.84" arrivalSpeed="13.89" duration="20.00" routeLength="223.48" waitingTime="0.00" waitingCount="0" stopTime="0.00" timeLoss="3.71" rerouteNo="1" devices="tripinfo_f_619.4 routing_f_619.4" vType="t_1" speedFactor="1.01" vaporized=""/>
    <tripinfo id="f_34.5" depart="499.00" departLane="-E26_0" departPos="5.10" departSpeed="0.00" departDelay="0.75" arrival="519.00" arrivalLane="E33_0" arrivalPos="81.84" arrivalSpeed="13.78" duration="20.00" routeLength="223.48" waitingTime="0.00" waitingCount="0" stopTime="0.00" timeLoss="4.08" rerouteNo="1" devices="tripinfo_f_34.5 routing_f_34.5" vType="t_0" speedFactor="1.03" vaporized=""/>
    <tripinfo id="f_1200.0" depart="368.00" departLane="E30_0" departPos="5.10" departSpeed="0.00" departDelay="0.36" arrival="532.00" arrivalLane="E27_3" arrivalPos="159.69" arrivalSpeed="13.75" duration="164.00" routeLength="601.77" waitingTime="109.00" waitingCount="1" stopTime="0.00" timeLoss="120.26" rerouteNo="2" devices="tripinfo_f_1200.0 routing_f_1200.0" vType="t_2" speedFactor="1.02" vaporized=""/>
    <tripinfo id="f_27.1" depart="462.00" departLane="E7_0" departPos="5.10" departSpeed="0.00" departDelay="0.17" arrival="538.00" arrivalLane="E12.39_0" arrivalPos="80.30" arrivalSpeed="12.61" duration="76.00" routeLength="245.25" waitingTime="47.00" waitingCount="1" stopTime="0.00" timeLoss="55.85" rerouteNo="2" devices="tripinfo_f_27.1 routing_f_27.1" vType="t_0" speedFactor="0.96" vaporized=""/>
    <tripinfo id="f_1196.0" depart="289.00" departLane="E22_0" departPos="5.10" departSpeed="0.00" departDelay="0.82" arrival="544.00" arrivalLane="E44.40_0" arrivalPos="152.78" arrivalSpeed="11.42" duration="255.00" routeLength="374.44" waitingTime="208.00" waitingCount="2" stopTime="0.00" timeLoss="223.91" rerouteNo="1" devices="tripinfo_f_1196.0 routing_f_1196.0" vType="t_2" speedFactor="0.88" vaporized=""/>
    <tripinfo id="f_1199.2" depart="238.00" departLane="E24_0" departPos="5.10" departSpeed="0.00" departDelay="0.95" arrival="547.00" arrivalLane="E10_0" arrivalPos="49.33" arrivalSpeed="13.18" duration="309.00" routeLength="1197.66" waitingTime="201.00" waitingCount="2" stopTime="0.00" timeLoss="218.41" rerouteNo="4" devices="tripinfo_f_1199.2 routing_f_1199.2" vType="t_2" speedFactor="0.96" vaporized=""/>
    <tripinfo id="f_612.3" depart="432.00" departLane="E7_0" departPos="5.10" departSpeed="0.00" departDelay="0.85" arrival="548.00" arrivalLane="E13.40_0" arrivalPos="167.46" arrivalSpeed="13.58" duration="116.00" routeLength="421.10" waitingTime="77.00" waitingCount="1" stopTime="0.00" timeLoss="85.81" rerouteNo="2" devices="tripinfo_f_612.3 routing_f_612.3" vType="t_1" speedFactor="1.02" vaporized=""/>
    <tripinfo id="f_30.0" depart="280.00" departLane="E30_0" departPos="5.10" departSpeed="0.00" departDelay="0.73" arrival="549.00" arrivalLane="E10_0" arrivalPos="49.33" arrivalSpeed="14.49" duration="269.00" routeLength="1432.05" waitingTime="154.00" waitingCount="2" stopTime="0.00" timeLoss="173.87" rerouteNo="4" devices="tripinfo_f_30.0 routing_f_30.0" vType="t_0" speedFactor="1.09" vaporized=""/>
    <tripinfo id="f_27.2" depart="530.00" departLane="E7_0" departPos="5.10" departSpeed="0.00" departDelay="0.30" arrival="553.00" arrivalLane="E12.39_0" arrivalPos="80.30" arrivalSpeed="14.03" duration="23.00" routeLength="245.25" waitingTime="0.00" waitingCount="0" stopTime="0.00" timeLoss="4.28" rerouteNo="2" devices="tripinfo_f_27.2 routing_f_27.2" vType="t_0" speedFactor="1.02" vaporized=""/>
    <tripinfo id="f_1200.1" depart="510.00" departLane="E30_0" departPos="5.10" departSpeed="0.00" departDelay="0.79" arrival="555.00" arrivalLane="E27_3" arrivalPos="159.69" arrivalSpeed="15.02" duration="45.00" routeLength="601.77" waitingTime="0.00" waitingCount="0" stopTime="0.00" timeLoss="6.32" rerouteNo="2" devices="tripinfo_f_1200.1 routing_f_1200.1" vType="t_2" speedFactor="1.15" vaporized=""/>
    <tripinfo id="f_1200.2" depart="514.00" departLane="E30_0" departPos="5.10" departSpeed="0.00" departDelay="0.38" arrival="556.00" arrivalLane="E31_0" arrivalPos="202.19" arrivalSpeed="12.84" duration="42.00" routeLength="465.01" waitingTime="0.00" waitingCount="0" stopTime="0.00" timeLoss="6.00" rerouteNo="2" devices="tripinfo_f_1200.2 routing_f_1200.2" vType="t_2" speedFactor="0.98" vaporized=""/>