<?xml version="1.0" encoding="UTF-8"?>

<!-- generated on 2024-01-05 16:53:37 by Eclipse SUMO GUI Version 1.18.0
<configuration xmlns:xsi="http://www.w3.org/2001/XMLSchema-instance" xsi:noNamespaceSchemaLocation="http://sumo.dlr.de/xsd/sumoConfiguration.xsd">

    <input>
        <net-file value="C:\Users\ivand\Documents\SUMO - Copy\LAST\Reall02-Gongguan.net.xml"/>
        <route-files value="C:\Users\ivand\Documents\SUMO - Copy\LAST\LAST.rou.xml"/>
        <additional-files value="C:\Users\ivand\Documents\SUMO - Copy\LAST\backup.add.xml"/>
    </input>

    <output>
        <fcd-output value="C:\Users\ivand\Documents\SUMO - Copy\LAST\Output/fcdOutput.xml"/>
        <full-output value="C:\Users\ivand\Documents\SUMO - Copy\LAST\Output/outputs.xml"/>
        <summary-output value="C:\Users\ivand\Documents\SUMO - Copy\LAST\Output/summary.xml"/>
        <stop-output value="C:\Users\ivand\Documents\SUMO - Copy\LAST\Output/stopOutput.xml"/>
        <edgedata-output value="C:\Users\ivand\Documents\SUMO - Copy\LAST\Output/edgedata.xml"/>
        <statistic-output value="C:\Users\ivand\Documents\SUMO - Copy\LAST\Output/statisticOutput.xml"/>
    </output>

    <random_number>
        <seed value="1234"/>
    </random_number>

</configuration>
-->

<fcd-export xmlns:xsi="http://www.w3.org/2001/XMLSchema-instance" xsi:noNamespaceSchemaLocation="http://sumo.dlr.de/xsd/fcd_file.xsd">
    <timestep time="0.00"/>
    <timestep time="1.00"/>
    <timestep time="2.00"/>
    <timestep time="3.00"/>
    <timestep time="4.00"/>
    <timestep time="5.00"/>
    <timestep time="6.00"/>
    <timestep time="7.00"/>
    <timestep time="8.00"/>
    <timestep time="9.00">
        <vehicle id="f_611.0" x="-233.25" y="-1412.40" angle="358.27" type="t_1" speed="0.00" pos="5.10" lane="E22_0" slope="0.00"/>
    </timestep>
    <timestep time="10.00">
        <vehicle id="f_611.0" x="-233.33" y="-1409.91" angle="358.27" type="t_1" speed="2.49" pos="7.59" lane="E22_0" slope="0.00"/>
    </timestep>
    <timestep time="11.00">
        <vehicle id="f_611.0" x="-233.45" y="-1405.98" angle="358.27" type="t_1" speed="3.94" pos="11.53" lane="E22_0" slope="0.00"/>
    </timestep>
    <timestep time="12.00">
        <vehicle id="f_611.0" x="-233.61" y="-1400.46" angle="358.27" type="t_1" speed="5.52" pos="17.05" lane="E22_0" slope="0.00"/>
    </timestep>
    <timestep time="13.00">
        <vehicle id="f_611.0" x="-233.83" y="-1393.49" angle="358.27" type="t_1" speed="6.98" pos="24.02" lane="E22_0" slope="0.00"/>
    </timestep>
    <timestep time="14.00">
        <vehicle id="f_611.0" x="-234.09" y="-1384.75" angle="358.27" type="t_1" speed="8.73" pos="32.76" lane="E22_0" slope="0.00"/>
    </timestep>
    <timestep time="15.00">
        <vehicle id="f_611.0" x="-234.43" y="-1373.47" angle="358.27" type="t_1" speed="11.29" pos="44.05" lane="E22_0" slope="0.00"/>
    </timestep>
    <timestep time="16.00">
        <vehicle id="f_611.0" x="-234.78" y="-1361.99" angle="358.27" type="t_1" speed="11.48" pos="55.53" lane="E22_0" slope="0.00"/>
    </timestep>
    <timestep time="17.00">
        <vehicle id="f_611.0" x="-235.12" y="-1350.75" angle="358.27" type="t_1" speed="11.25" pos="66.78" lane="E22_0" slope="0.00"/>
    </timestep>
    <timestep time="18.00">
        <vehicle id="f_611.0" x="-235.45" y="-1339.38" angle="358.35" type="t_1" speed="11.64" pos="4.92" lane=":J51_1_0" slope="0.00"/>
    </timestep>
    <timestep time="19.00">
        <vehicle id="f_611.0" x="-234.62" y="-1328.58" angle="9.17" type="t_1" speed="11.53" pos="16.44" lane=":J51_1_0" slope="0.00"/>
    </timestep>
    <timestep time="20.00">
        <vehicle id="f_611.0" x="-230.70" y="-1319.27" angle="26.05" type="t_1" speed="10.71" pos="27.15" lane=":J51_1_0" slope="0.00"/>
    </timestep>
    <timestep time="21.00">
        <vehicle id="f_611.0" x="-226.18" y="-1308.94" angle="19.12" type="t_1" speed="10.83" pos="9.45" lane="E45_0" slope="0.00"/>
    </timestep>
    <timestep time="22.00">
        <vehicle id="f_611.0" x="-224.72" y="-1297.74" angle="3.61" type="t_1" speed="10.96" pos="5.09" lane=":J60_10_0" slope="0.00"/>
    </timestep>
    <timestep time="23.00">
        <vehicle id="f_611.0" x="-224.62" y="-1287.02" angle="357.00" type="t_1" speed="10.75" pos="15.84" lane=":J60_10_0" slope="0.00"/>
    </timestep>
    <timestep time="24.00">
        <vehicle id="f_611.0" x="-227.28" y="-1276.80" angle="338.43" type="t_1" speed="10.68" pos="26.51" lane=":J60_10_0" slope="0.00"/>
    </timestep>
    <timestep time="25.00">
        <vehicle id="f_1205.0" x="-373.54" y="-304.27" angle="90.05" type="t_2" speed="0.00" pos="5.10" lane="-E33_0" slope="0.00"/>
        <vehicle id="f_611.0" x="-233.03" y="-1266.93" angle="327.84" type="t_1" speed="11.44" pos="37.95" lane=":J60_10_0" slope="0.00"/>
    </timestep>
    <timestep time="26.00">
        <vehicle id="f_1205.0" x="-371.81" y="-304.28" angle="90.05" type="t_2" speed="1.73" pos="6.83" lane="-E33_0" slope="0.00"/>
        <vehicle id="f_611.0" x="-240.66" y="-1257.18" angle="316.54" type="t_1" speed="10.97" pos="8.49" lane="E53.21_0" slope="0.00"/>
    </timestep>
    <timestep time="27.00">
        <vehicle id="f_1205.0" x="-368.32" y="-304.28" angle="90.05" type="t_2" speed="3.49" pos="10.32" lane="-E33_0" slope="0.00"/>
        <vehicle id="f_611.0" x="-254.39" y="-1253.12" angle="286.50" type="t_1" speed="11.90" pos="20.39" lane="E53.21_0" slope="0.00"/>
        <vehicle id="f_613.0" x="-143.67" y="28.97" angle="270.16" type="t_1" speed="0.00" pos="5.10" lane="E32_0" slope="0.00"/>
    </timestep>
    <timestep time="28.00">
        <vehicle id="f_1205.0" x="-363.29" y="-304.28" angle="90.05" type="t_2" speed="5.03" pos="15.35" lane="-E33_0" slope="0.00"/>
        <vehicle id="f_611.0" x="-264.08" y="-1252.26" angle="267.54" type="t_1" speed="8.26" pos="28.65" lane="E53.21_0" slope="0.00"/>
        <vehicle id="f_613.0" x="-146.06" y="28.98" angle="270.16" type="t_1" speed="2.39" pos="7.49" lane="E32_0" slope="0.00"/>
    </timestep>
    <timestep time="29.00">
        <vehicle id="f_1205.0" x="-355.92" y="-304.29" angle="90.05" type="t_2" speed="7.37" pos="22.72" lane="-E33_0" slope="0.00"/>
        <vehicle id="f_611.0" x="-268.58" y="-1252.74" angle="263.83" type="t_1" speed="3.76" pos="32.40" lane="E53.21_0" slope="0.00"/>
        <vehicle id="f_613.0" x="-150.66" y="28.99" angle="270.16" type="t_1" speed="4.59" pos="12.09" lane="E32_0" slope="0.00"/>
    </timestep>
    <timestep time="30.00">
        <vehicle id="f_1205.0" x="-347.05" y="-304.30" angle="90.05" type="t_2" speed="8.87" pos="31.59" lane="-E33_0" slope="0.00"/>
        <vehicle id="f_611.0" x="-270.24" y="-1252.92" angle="263.83" type="t_1" speed="1.39" pos="33.80" lane="E53.21_0" slope="0.00"/>
        <vehicle id="f_613.0" x="-156.88" y="29.01" angle="270.16" type="t_1" speed="6.22" pos="18.31" lane="E32_0" slope="0.00"/>
    </timestep>
    <timestep time="31.00">
        <vehicle id="f_1205.0" x="-335.65" y="-304.31" angle="90.05" type="t_2" speed="11.41" pos="42.99" lane="-E33_0" slope="0.00"/>
        <vehicle id="f_32.0" x="-204.43" y="-973.80" angle="265.70" type="t_0" speed="0.00" pos="5.10" lane="-E5_0" slope="0.00"/>
        <vehicle id="f_611.0" x="-270.48" y="-1252.95" angle="263.83" type="t_1" speed="0.20" pos="33.99" lane="E53.21_0" slope="0.00"/>
        <vehicle id="f_613.0" x="-165.05" y="29.03" angle="270.16" type="t_1" speed="8.17" pos="26.48" lane="E32_0" slope="0.00"/>
    </timestep>
    <timestep time="32.00">
        <vehicle id="f_1205.0" x="-321.98" y="-304.32" angle="90.05" type="t_2" speed="13.67" pos="56.66" lane="-E33_0" slope="0.00"/>
        <vehicle id="f_32.0" x="-205.94" y="-977.12" angle="265.70" type="t_0" speed="1.76" pos="6.86" lane="-E5_1" slope="0.00"/>
        <vehicle id="f_611.0" x="-270.48" y="-1252.95" angle="263.83" type="t_1" speed="0.01" pos="34.00" lane="E53.21_0" slope="0.00"/>
        <vehicle id="f_613.0" x="-174.70" y="29.06" angle="270.16" type="t_1" speed="9.66" pos="36.13" lane="E32_0" slope="0.00"/>
    </timestep>
    <timestep time="33.00">
        <vehicle id="f_1205.0" x="-309.71" y="-304.33" angle="90.05" type="t_2" speed="12.27" pos="68.93" lane="-E33_0" slope="0.00"/>
        <vehicle id="f_32.0" x="-209.96" y="-977.43" angle="265.70" type="t_0" speed="4.03" pos="10.89" lane="-E5_1" slope="0.00"/>
        <vehicle id="f_611.0" x="-270.48" y="-1252.95" angle="263.83" type="t_1" speed="0.00" pos="34.00" lane="E53.21_0" slope="0.00"/>
        <vehicle id="f_613.0" x="-186.22" y="29.09" angle="270.16" type="t_1" speed="11.51" pos="47.65" lane="E32_0" slope="0.00"/>
    </timestep>
    <timestep time="34.00">
        <vehicle id="f_1205.0" x="-301.70" y="-304.34" angle="90.05" type="t_2" speed="8.01" pos="76.94" lane="-E33_0" slope="0.00"/>
        <vehicle id="f_32.0" x="-216.19" y="-977.90" angle="265.70" type="t_0" speed="6.25" pos="17.14" lane="-E5_1" slope="0.00"/>
        <vehicle id="f_611.0" x="-270.48" y="-1252.95" angle="263.83" type="t_1" speed="0.00" pos="34.00" lane="E53.21_0" slope="0.00"/>
        <vehicle id="f_613.0" x="-197.34" y="29.12" angle="270.16" type="t_1" speed="11.12" pos="58.77" lane="E32_0" slope="0.00"/>
    </timestep>
    <timestep time="35.00">
        <vehicle id="f_1205.0" x="-298.19" y="-304.34" angle="90.05" type="t_2" speed="3.51" pos="80.45" lane="-E33_0" slope="0.00"/>
        <vehicle id="f_32.0" x="-224.71" y="-978.54" angle="265.70" type="t_0" speed="8.54" pos="25.68" lane="-E5_1" slope="0.00"/>
        <vehicle id="f_611.0" x="-270.48" y="-1252.95" angle="263.83" type="t_1" speed="0.00" pos="34.00" lane="E53.21_0" slope="0.00"/>
        <vehicle id="f_613.0" x="-208.95" y="29.15" angle="270.16" type="t_1" speed="11.61" pos="70.38" lane="E32_0" slope="0.00"/>
    </timestep>
    <timestep time="36.00">
        <vehicle id="f_1205.0" x="-297.99" y="-304.34" angle="90.05" type="t_2" speed="0.20" pos="80.65" lane="-E33_0" slope="0.00"/>
        <vehicle id="f_32.0" x="-235.71" y="-979.36" angle="265.70" type="t_0" speed="11.04" pos="36.72" lane="-E5_1" slope="0.00"/>
        <vehicle id="f_611.0" x="-270.48" y="-1252.95" angle="263.83" type="t_1" speed="0.00" pos="34.00" lane="E53.21_0" slope="0.00"/>
        <vehicle id="f_613.0" x="-220.39" y="29.18" angle="270.16" type="t_1" speed="11.45" pos="81.82" lane="E32_0" slope="0.00"/>
    </timestep>
    <timestep time="37.00">
        <vehicle id="f_1205.0" x="-297.82" y="-304.34" angle="90.05" type="t_2" speed="0.17" pos="80.82" lane="-E33_0" slope="0.00"/>
        <vehicle id="f_32.0" x="-244.96" y="-980.06" angle="265.70" type="t_0" speed="9.27" pos="45.99" lane="-E5_1" slope="0.00"/>
        <vehicle id="f_611.0" x="-270.48" y="-1252.95" angle="263.83" type="t_1" speed="0.00" pos="34.00" lane="E53.21_0" slope="0.00"/>
        <vehicle id="f_613.0" x="-231.51" y="29.22" angle="270.16" type="t_1" speed="11.12" pos="92.94" lane="E32_0" slope="0.00"/>
    </timestep>
    <timestep time="38.00">
        <vehicle id="f_1205.0" x="-297.81" y="-304.34" angle="90.05" type="t_2" speed="0.01" pos="80.83" lane="-E33_0" slope="0.00"/>
        <vehicle id="f_32.0" x="-249.71" y="-980.42" angle="265.70" type="t_0" speed="4.77" pos="50.76" lane="-E5_1" slope="0.00"/>
        <vehicle id="f_611.0" x="-270.48" y="-1252.95" angle="263.83" type="t_1" speed="0.00" pos="34.00" lane="E53.21_0" slope="0.00"/>
        <vehicle id="f_613.0" x="-243.70" y="29.25" angle="270.16" type="t_1" speed="12.19" pos="105.13" lane="E32_0" slope="0.00"/>
    </timestep>
    <timestep time="39.00">
        <vehicle id="f_1205.0" x="-297.80" y="-304.34" angle="90.05" type="t_2" speed="0.00" pos="80.84" lane="-E33_0" slope="0.00"/>
        <vehicle id="f_32.0" x="-250.98" y="-980.51" angle="265.70" type="t_0" speed="1.27" pos="52.02" lane="-E5_1" slope="0.00"/>
        <vehicle id="f_611.0" x="-270.48" y="-1252.95" angle="263.83" type="t_1" speed="0.00" pos="34.00" lane="E53.21_0" slope="0.00"/>
        <vehicle id="f_613.0" x="-252.64" y="29.27" angle="270.16" type="t_1" speed="8.94" pos="114.07" lane="E32_0" slope="0.00"/>
    </timestep>
    <timestep time="40.00">
        <vehicle id="f_1205.0" x="-297.80" y="-304.34" angle="90.05" type="t_2" speed="0.00" pos="80.84" lane="-E33_0" slope="0.00"/>
        <vehicle id="f_32.0" x="-251.25" y="-980.53" angle="265.70" type="t_0" speed="0.27" pos="52.30" lane="-E5_1" slope="0.00"/>
        <vehicle id="f_611.0" x="-270.48" y="-1252.95" angle="263.83" type="t_1" speed="0.00" pos="34.00" lane="E53.21_0" slope="0.00"/>
        <vehicle id="f_613.0" x="-257.08" y="29.29" angle="270.16" type="t_1" speed="4.44" pos="118.51" lane="E32_0" slope="0.00"/>
    </timestep>
    <timestep time="41.00">
        <vehicle id="f_1205.0" x="-297.80" y="-304.34" angle="90.05" type="t_2" speed="0.00" pos="80.84" lane="-E33_0" slope="0.00"/>
        <vehicle id="f_26.0" x="-233.25" y="-1412.40" angle="358.27" type="t_0" speed="0.00" pos="5.10" lane="E22_0" slope="0.00"/>
        <vehicle id="f_32.0" x="-251.26" y="-980.53" angle="265.70" type="t_0" speed="0.01" pos="52.31" lane="-E5_1" slope="0.00"/>
        <vehicle id="f_610.0" x="-44.58" y="-1297.98" angle="271.95" type="t_1" speed="0.00" pos="5.10" lane="E19_0" slope="0.00"/>
        <vehicle id="f_611.0" x="-270.48" y="-1252.95" angle="263.83" type="t_1" speed="0.00" pos="34.00" lane="E53.21_0" slope="0.00"/>
        <vehicle id="f_613.0" x="-257.44" y="29.29" angle="270.16" type="t_1" speed="0.37" pos="118.87" lane="E32_0" slope="0.00"/>
    </timestep>
    <timestep time="42.00">
        <vehicle id="f_1205.0" x="-297.80" y="-304.34" angle="90.05" type="t_2" speed="0.00" pos="80.84" lane="-E33_0" slope="0.00"/>
        <vehicle id="f_26.0" x="-233.31" y="-1410.46" angle="358.27" type="t_0" speed="1.94" pos="7.04" lane="E22_0" slope="0.00"/>
        <vehicle id="f_32.0" x="-251.26" y="-980.53" angle="265.70" type="t_0" speed="0.00" pos="52.31" lane="-E5_1" slope="0.00"/>
        <vehicle id="f_610.0" x="-47.01" y="-1297.89" angle="271.95" type="t_1" speed="2.44" pos="7.54" lane="E19_0" slope="0.00"/>
        <vehicle id="f_611.0" x="-270.48" y="-1252.95" angle="263.83" type="t_1" speed="0.00" pos="34.00" lane="E53.21_0" slope="0.00"/>
        <vehicle id="f_613.0" x="-257.60" y="29.29" angle="270.16" type="t_1" speed="0.16" pos="119.03" lane="E32_0" slope="0.00"/>
    </timestep>
    <timestep time="43.00">
        <vehicle id="f_1205.0" x="-297.80" y="-304.34" angle="90.05" type="t_2" speed="0.00" pos="80.84" lane="-E33_0" slope="0.00"/>
        <vehicle id="f_26.0" x="-233.42" y="-1407.01" angle="358.27" type="t_0" speed="3.46" pos="10.50" lane="E22_0" slope="0.00"/>
        <vehicle id="f_32.0" x="-251.26" y="-980.53" angle="265.70" type="t_0" speed="0.00" pos="52.31" lane="-E5_1" slope="0.00"/>
        <vehicle id="f_610.0" x="-51.59" y="-1297.74" angle="271.95" type="t_1" speed="4.58" pos="12.12" lane="E19_0" slope="0.00"/>
        <vehicle id="f_611.0" x="-270.48" y="-1252.95" angle="263.83" type="t_1" speed="0.00" pos="34.00" lane="E53.21_0" slope="0.00"/>
        <vehicle id="f_613.0" x="-257.63" y="29.29" angle="270.16" type="t_1" speed="0.03" pos="119.06" lane="E32_0" slope="0.00"/>
    </timestep>
    <timestep time="44.00">
        <vehicle id="f_1194.0" x="-58.31" y="-1270.30" angle="264.18" type="t_2" speed="0.00" pos="5.10" lane="E13_0" slope="0.00"/>
        <vehicle id="f_1205.0" x="-297.80" y="-304.34" angle="90.05" type="t_2" speed="0.00" pos="80.84" lane="-E33_0" slope="0.00"/>
        <vehicle id="f_26.0" x="-233.57" y="-1401.88" angle="358.27" type="t_0" speed="5.13" pos="15.63" lane="E22_0" slope="0.00"/>
        <vehicle id="f_32.0" x="-251.26" y="-980.53" angle="265.70" type="t_0" speed="0.00" pos="52.31" lane="-E5_1" slope="0.00"/>
        <vehicle id="f_610.0" x="-58.19" y="-1297.51" angle="271.95" type="t_1" speed="6.60" pos="18.72" lane="E19_0" slope="0.00"/>
        <vehicle id="f_610.1" x="-44.58" y="-1297.98" angle="271.95" type="t_1" speed="0.00" pos="5.10" lane="E19_0" slope="0.00"/>
        <vehicle id="f_611.0" x="-270.48" y="-1252.95" angle="263.83" type="t_1" speed="0.00" pos="34.00" lane="E53.21_0" slope="0.00"/>
        <vehicle id="f_613.0" x="-257.64" y="29.29" angle="270.16" type="t_1" speed="0.00" pos="119.07" lane="E32_0" slope="0.00"/>
    </timestep>
    <timestep time="45.00">
        <vehicle id="f_1194.0" x="-59.97" y="-1270.47" angle="264.18" type="t_2" speed="1.67" pos="6.77" lane="E13_0" slope="0.00"/>
        <vehicle id="f_1205.0" x="-297.80" y="-304.34" angle="90.05" type="t_2" speed="0.00" pos="80.84" lane="-E33_0" slope="0.00"/>
        <vehicle id="f_26.0" x="-233.79" y="-1394.74" angle="358.27" type="t_0" speed="7.14" pos="22.77" lane="E22_0" slope="0.00"/>
        <vehicle id="f_32.0" x="-251.26" y="-980.53" angle="265.70" type="t_0" speed="0.00" pos="52.31" lane="-E5_1" slope="0.00"/>
        <vehicle id="f_610.0" x="-66.25" y="-1297.24" angle="271.95" type="t_1" speed="8.06" pos="26.78" lane="E19_0" slope="0.00"/>
        <vehicle id="f_610.1" x="-46.05" y="-1297.93" angle="271.95" type="t_1" speed="1.47" pos="6.57" lane="E19_0" slope="0.00"/>
        <vehicle id="f_611.0" x="-270.48" y="-1252.95" angle="263.83" type="t_1" speed="0.00" pos="34.00" lane="E53.21_0" slope="0.00"/>
        <vehicle id="f_613.0" x="-257.64" y="29.29" angle="270.16" type="t_1" speed="0.00" pos="119.07" lane="E32_0" slope="0.00"/>
    </timestep>
    <timestep time="46.00">
        <vehicle id="f_1194.0" x="-64.16" y="-1270.89" angle="264.18" type="t_2" speed="4.21" pos="10.98" lane="E13_0" slope="0.00"/>
        <vehicle id="f_1205.0" x="-297.80" y="-304.34" angle="90.05" type="t_2" speed="0.00" pos="80.84" lane="-E33_0" slope="0.00"/>
        <vehicle id="f_26.0" x="-234.04" y="-1386.27" angle="358.27" type="t_0" speed="8.48" pos="31.25" lane="E22_0" slope="0.00"/>
        <vehicle id="f_32.0" x="-251.26" y="-980.53" angle="265.70" type="t_0" speed="0.00" pos="52.31" lane="-E5_1" slope="0.00"/>
        <vehicle id="f_610.0" x="-75.80" y="-1296.92" angle="271.95" type="t_1" speed="9.55" pos="36.34" lane="E19_0" slope="0.00"/>
        <vehicle id="f_610.1" x="-49.26" y="-1297.82" angle="271.95" type="t_1" speed="3.22" pos="9.79" lane="E19_0" slope="0.00"/>
        <vehicle id="f_611.0" x="-270.48" y="-1252.95" angle="263.83" type="t_1" speed="0.00" pos="34.00" lane="E53.21_0" slope="0.00"/>
        <vehicle id="f_613.0" x="-257.64" y="29.29" angle="270.16" type="t_1" speed="0.00" pos="119.07" lane="E32_0" slope="0.00"/>
    </timestep>
    <timestep time="47.00">
        <vehicle id="f_1194.0" x="-70.00" y="-1271.49" angle="264.18" type="t_2" speed="5.87" pos="16.85" lane="E13_0" slope="0.00"/>
        <vehicle id="f_1205.0" x="-297.80" y="-304.34" angle="90.05" type="t_2" speed="0.00" pos="80.84" lane="-E33_0" slope="0.00"/>
        <vehicle id="f_26.0" x="-234.36" y="-1375.86" angle="358.27" type="t_0" speed="10.41" pos="41.66" lane="E22_0" slope="0.00"/>
        <vehicle id="f_32.0" x="-251.26" y="-980.53" angle="265.70" type="t_0" speed="0.00" pos="52.31" lane="-E5_1" slope="0.00"/>
        <vehicle id="f_609.0" x="-58.31" y="-1270.30" angle="264.18" type="t_1" speed="0.00" pos="5.10" lane="E13_0" slope="0.00"/>
        <vehicle id="f_610.0" x="-86.76" y="-1296.54" angle="271.95" type="t_1" speed="10.97" pos="47.30" lane="E19_0" slope="0.00"/>
        <vehicle id="f_610.1" x="-54.76" y="-1297.63" angle="271.95" type="t_1" speed="5.50" pos="15.29" lane="E19_0" slope="0.00"/>
        <vehicle id="f_611.0" x="-270.48" y="-1252.95" angle="263.83" type="t_1" speed="0.00" pos="34.00" lane="E53.21_0" slope="0.00"/>
        <vehicle id="f_613.0" x="-257.64" y="29.29" angle="270.16" type="t_1" speed="0.00" pos="119.07" lane="E32_0" slope="0.00"/>
    </timestep>
    <timestep time="48.00">
        <vehicle id="f_1194.0" x="-78.11" y="-1272.32" angle="264.18" type="t_2" speed="8.15" pos="25.00" lane="E13_0" slope="0.00"/>
        <vehicle id="f_1205.0" x="-297.80" y="-304.34" angle="90.05" type="t_2" speed="0.00" pos="80.84" lane="-E33_0" slope="0.00"/>
        <vehicle id="f_26.0" x="-234.75" y="-1362.91" angle="358.27" type="t_0" speed="12.96" pos="54.61" lane="E22_0" slope="0.00"/>
        <vehicle id="f_32.0" x="-251.26" y="-980.53" angle="265.70" type="t_0" speed="0.00" pos="52.31" lane="-E5_1" slope="0.00"/>
        <vehicle id="f_609.0" x="-59.85" y="-1270.45" angle="264.18" type="t_1" speed="1.54" pos="6.64" lane="E13_0" slope="0.00"/>
        <vehicle id="f_610.0" x="-98.87" y="-1296.13" angle="271.95" type="t_1" speed="12.11" pos="59.42" lane="E19_0" slope="0.00"/>
        <vehicle id="f_610.1" x="-62.69" y="-1297.36" angle="271.95" type="t_1" speed="7.93" pos="23.22" lane="E19_0" slope="0.00"/>
        <vehicle id="f_611.0" x="-270.48" y="-1252.95" angle="263.83" type="t_1" speed="0.00" pos="34.00" lane="E53.21_0" slope="0.00"/>
        <vehicle id="f_613.0" x="-257.64" y="29.29" angle="270.16" type="t_1" speed="0.00" pos="119.07" lane="E32_0" slope="0.00"/>
    </timestep>
    <timestep time="49.00">
        <vehicle id="f_1194.0" x="-87.87" y="-1273.31" angle="264.18" type="t_2" speed="9.81" pos="34.81" lane="E13_0" slope="0.00"/>
        <vehicle id="f_1205.0" x="-297.80" y="-304.34" angle="90.05" type="t_2" speed="0.00" pos="80.84" lane="-E33_0" slope="0.00"/>
        <vehicle id="f_26.0" x="-235.05" y="-1353.08" angle="358.27" type="t_0" speed="9.83" pos="64.44" lane="E22_0" slope="0.00"/>
        <vehicle id="f_29.0" x="-402.43" y="-46.47" angle="90.09" type="t_0" speed="0.00" pos="5.10" lane="E24_0" slope="0.00"/>
        <vehicle id="f_32.0" x="-251.26" y="-980.53" angle="265.70" type="t_0" speed="0.00" pos="52.31" lane="-E5_1" slope="0.00"/>
        <vehicle id="f_609.0" x="-62.78" y="-1270.75" angle="264.18" type="t_1" speed="2.95" pos="9.59" lane="E13_0" slope="0.00"/>
        <vehicle id="f_610.0" x="-111.09" y="-1295.72" angle="271.95" type="t_1" speed="12.23" pos="71.65" lane="E19_0" slope="0.00"/>
        <vehicle id="f_610.1" x="-72.26" y="-1297.04" angle="271.95" type="t_1" speed="9.58" pos="32.80" lane="E19_0" slope="0.00"/>
        <vehicle id="f_611.0" x="-270.48" y="-1252.95" angle="263.83" type="t_1" speed="0.00" pos="34.00" lane="E53.21_0" slope="0.00"/>
        <vehicle id="f_613.0" x="-257.64" y="29.29" angle="270.16" type="t_1" speed="0.00" pos="119.07" lane="E32_0" slope="0.00"/>
    </timestep>
    <timestep time="50.00">
        <vehicle id="f_1194.0" x="-99.95" y="-1274.54" angle="264.18" type="t_2" speed="12.14" pos="46.95" lane="E13_0" slope="0.00"/>
        <vehicle id="f_1205.0" x="-297.80" y="-304.34" angle="90.05" type="t_2" speed="0.00" pos="80.84" lane="-E33_0" slope="0.00"/>
        <vehicle id="f_26.0" x="-235.22" y="-1347.50" angle="358.27" type="t_0" speed="5.59" pos="70.03" lane="E22_0" slope="0.00"/>
        <vehicle id="f_29.0" x="-400.20" y="-46.47" angle="90.09" type="t_0" speed="2.24" pos="7.34" lane="E24_0" slope="0.00"/>
        <vehicle id="f_31.0" x="-357.24" y="-982.12" angle="92.05" type="t_0" speed="0.00" pos="5.10" lane="-E3_0" slope="0.00"/>
        <vehicle id="f_32.0" x="-251.26" y="-980.53" angle="265.70" type="t_0" speed="0.00" pos="52.31" lane="-E5_1" slope="0.00"/>
        <vehicle id="f_609.0" x="-67.66" y="-1271.25" angle="264.18" type="t_1" speed="4.90" pos="14.49" lane="E13_0" slope="0.00"/>
        <vehicle id="f_610.0" x="-123.08" y="-1295.31" angle="271.95" type="t_1" speed="12.00" pos="83.65" lane="E19_0" slope="0.00"/>
        <vehicle id="f_610.1" x="-83.32" y="-1296.66" angle="271.95" type="t_1" speed="11.06" pos="43.86" lane="E19_0" slope="0.00"/>
        <vehicle id="f_611.0" x="-270.48" y="-1252.95" angle="263.83" type="t_1" speed="0.00" pos="34.00" lane="E53.21_0" slope="0.00"/>
        <vehicle id="f_613.0" x="-257.64" y="29.29" angle="270.16" type="t_1" speed="0.00" pos="119.07" lane="E32_0" slope="0.00"/>
    </timestep>
    <timestep time="51.00">
        <vehicle id="f_1194.0" x="-113.29" y="-1275.90" angle="264.18" type="t_2" speed="13.41" pos="60.36" lane="E13_0" slope="0.00"/>
        <vehicle id="f_1205.0" x="-297.80" y="-304.34" angle="90.05" type="t_2" speed="0.00" pos="80.84" lane="-E33_0" slope="0.00"/>
        <vehicle id="f_26.0" x="-235.26" y="-1346.13" angle="358.27" type="t_0" speed="1.37" pos="71.40" lane="E22_0" slope="0.00"/>
        <vehicle id="f_29.0" x="-395.74" y="-46.48" angle="90.09" type="t_0" speed="4.46" pos="11.79" lane="E24_0" slope="0.00"/>
        <vehicle id="f_31.0" x="-355.93" y="-982.17" angle="92.05" type="t_0" speed="1.31" pos="6.41" lane="-E3_0" slope="0.00"/>
        <vehicle id="f_32.0" x="-251.26" y="-980.53" angle="265.70" type="t_0" speed="0.00" pos="52.31" lane="-E5_1" slope="0.00"/>
        <vehicle id="f_609.0" x="-74.74" y="-1271.97" angle="264.18" type="t_1" speed="7.12" pos="21.61" lane="E13_0" slope="0.00"/>
        <vehicle id="f_610.0" x="-135.22" y="-1294.89" angle="271.95" type="t_1" speed="12.14" pos="95.79" lane="E19_0" slope="0.00"/>
        <vehicle id="f_610.1" x="-95.95" y="-1296.23" angle="271.95" type="t_1" speed="12.64" pos="56.50" lane="E19_0" slope="0.00"/>
        <vehicle id="f_611.0" x="-270.48" y="-1252.95" angle="263.83" type="t_1" speed="0.00" pos="34.00" lane="E53.21_0" slope="0.00"/>
        <vehicle id="f_613.0" x="-257.64" y="29.29" angle="270.16" type="t_1" speed="0.00" pos="119.07" lane="E32_0" slope="0.00"/>
    </timestep>
    <timestep time="52.00">
        <vehicle id="f_1194.0" x="-127.60" y="-1277.36" angle="264.18" type="t_2" speed="14.38" pos="74.74" lane="E13_0" slope="0.00"/>
        <vehicle id="f_1203.0" x="-190.79" y="-529.38" angle="269.94" type="t_2" speed="0.00" pos="5.10" lane="-E43_0" slope="0.00"/>
        <vehicle id="f_1205.0" x="-297.80" y="-304.34" angle="90.05" type="t_2" speed="0.00" pos="80.84" lane="-E33_0" slope="0.00"/>
        <vehicle id="f_26.0" x="-235.28" y="-1345.43" angle="358.27" type="t_0" speed="0.70" pos="72.10" lane="E22_0" slope="0.00"/>
        <vehicle id="f_29.0" x="-389.16" y="-46.49" angle="90.09" type="t_0" speed="6.58" pos="18.37" lane="E24_0" slope="0.00"/>
        <vehicle id="f_30.0" x="-291.11" y="149.23" angle="180.92" type="t_0" speed="0.00" pos="5.10" lane="E30_0" slope="0.00"/>
        <vehicle id="f_31.0" x="-352.96" y="-982.28" angle="92.05" type="t_0" speed="2.98" pos="9.39" lane="-E3_0" slope="0.00"/>
        <vehicle id="f_32.0" x="-251.26" y="-980.53" angle="265.70" type="t_0" speed="0.00" pos="52.31" lane="-E5_1" slope="0.00"/>
        <vehicle id="f_609.0" x="-83.13" y="-1272.83" angle="264.18" type="t_1" speed="8.43" pos="30.04" lane="E13_0" slope="0.00"/>
        <vehicle id="f_610.0" x="-147.27" y="-1294.49" angle="271.95" type="t_1" speed="12.06" pos="107.85" lane="E19_0" slope="0.00"/>
        <vehicle id="f_610.1" x="-108.33" y="-1295.81" angle="271.95" type="t_1" speed="12.39" pos="68.89" lane="E19_0" slope="0.00"/>
        <vehicle id="f_611.0" x="-270.48" y="-1252.95" angle="263.83" type="t_1" speed="0.00" pos="34.00" lane="E53.21_0" slope="0.00"/>
        <vehicle id="f_613.0" x="-257.64" y="29.29" angle="270.16" type="t_1" speed="0.00" pos="119.07" lane="E32_0" slope="0.00"/>
    </timestep>
    <timestep time="53.00">
        <vehicle id="f_1194.0" x="-141.74" y="-1278.80" angle="264.18" type="t_2" speed="14.21" pos="88.95" lane="E13_0" slope="0.00"/>
        <vehicle id="f_1203.0" x="-192.77" y="-529.38" angle="269.94" type="t_2" speed="1.98" pos="7.08" lane="-E43_0" slope="0.00"/>
        <vehicle id="f_1205.0" x="-297.80" y="-304.34" angle="90.05" type="t_2" speed="0.00" pos="80.84" lane="-E33_0" slope="0.00"/>
        <vehicle id="f_26.0" x="-235.29" y="-1345.10" angle="358.27" type="t_0" speed="0.33" pos="72.43" lane="E22_0" slope="0.00"/>
        <vehicle id="f_29.0" x="-381.25" y="-46.50" angle="90.09" type="t_0" speed="7.91" pos="26.28" lane="E24_0" slope="0.00"/>
        <vehicle id="f_30.0" x="-291.15" y="146.87" angle="180.92" type="t_0" speed="2.36" pos="7.46" lane="E30_0" slope="0.00"/>
        <vehicle id="f_31.0" x="-347.92" y="-982.46" angle="92.05" type="t_0" speed="5.04" pos="14.43" lane="-E3_0" slope="0.00"/>
        <vehicle id="f_32.0" x="-251.26" y="-980.53" angle="265.70" type="t_0" speed="0.00" pos="52.31" lane="-E5_1" slope="0.00"/>
        <vehicle id="f_609.0" x="-93.21" y="-1273.85" angle="264.18" type="t_1" speed="10.14" pos="40.18" lane="E13_0" slope="0.00"/>
        <vehicle id="f_610.0" x="-159.96" y="-1294.05" angle="271.95" type="t_1" speed="12.70" pos="120.55" lane="E19_0" slope="0.00"/>
        <vehicle id="f_610.1" x="-120.30" y="-1295.40" angle="271.95" type="t_1" speed="11.97" pos="80.86" lane="E19_0" slope="0.00"/>
        <vehicle id="f_611.0" x="-270.48" y="-1252.95" angle="263.83" type="t_1" speed="0.00" pos="34.00" lane="E53.21_0" slope="0.00"/>
        <vehicle id="f_613.0" x="-257.64" y="29.29" angle="270.16" type="t_1" speed="0.00" pos="119.07" lane="E32_0" slope="0.00"/>
    </timestep>
    <timestep time="54.00">
        <vehicle id="f_1194.0" x="-155.78" y="-1280.23" angle="264.18" type="t_2" speed="14.11" pos="103.07" lane="E13_0" slope="0.00"/>
        <vehicle id="f_1203.0" x="-196.57" y="-529.38" angle="269.94" type="t_2" speed="3.80" pos="10.88" lane="-E43_0" slope="0.00"/>
        <vehicle id="f_1205.0" x="-297.80" y="-304.34" angle="90.05" type="t_2" speed="0.00" pos="80.84" lane="-E33_0" slope="0.00"/>
        <vehicle id="f_26.0" x="-235.29" y="-1345.05" angle="358.27" type="t_0" speed="0.06" pos="72.48" lane="E22_0" slope="0.00"/>