<?xml version="1.0" encoding="UTF-8"?>

<!-- generated on 2024-01-05 16:53:37 by Eclipse SUMO GUI Version 1.18.0
<configuration xmlns:xsi="http://www.w3.org/2001/XMLSchema-instance" xsi:noNamespaceSchemaLocation="http://sumo.dlr.de/xsd/sumoConfiguration.xsd">

    <input>
        <net-file value="C:\Users\ivand\Documents\SUMO - Copy\LAST\Reall02-Gongguan.net.xml"/>
        <route-files value="C:\Users\ivand\Documents\SUMO - Copy\LAST\LAST.rou.xml"/>
        <additional-files value="C:\Users\ivand\Documents\SUMO - Copy\LAST\backup.add.xml"/>
    </input>

    <output>
        <fcd-output value="C:\Users\ivand\Documents\SUMO - Copy\LAST\Output/fcdOutput.xml"/>
        <full-output value="C:\Users\ivand\Documents\SUMO - Copy\LAST\Output/outputs.xml"/>
        <summary-output value="C:\Users\ivand\Documents\SUMO - Copy\LAST\Output/summary.xml"/>
        <stop-output value="C:\Users\ivand\Documents\SUMO - Copy\LAST\Output/stopOutput.xml"/>
        <edgedata-output value="C:\Users\ivand\Documents\SUMO - Copy\LAST\Output/edgedata.xml"/>
        <statistic-output value="C:\Users\ivand\Documents\SUMO - Copy\LAST\Output/statisticOutput.xml"/>
    </output>

    <random_number>
        <seed value="1234"/>
    </random_number>

</configuration>
-->

<meandata xmlns:xsi="http://www.w3.org/2001/XMLSchema-instance" xsi:noNamespaceSchemaLocation="http://sumo.dlr.de/xsd/meandata_file.xsd">
    <interval begin="0.00" end="764.00" id="DEFAULT_EDGEDATA">
        <edge id="-E0" sampledSeconds="89.87" traveltime="88.18" overlapTraveltime="89.87" density="21.23" laneDensity="21.23" occupancy="9.49" waitingTime="84.00" timeLoss="88.45" speed="0.12" speedRelative="0.01" departed="0" arrived="0" entered="1" left="1" laneChangedFrom="0" laneChangedTo="0"/>
        <edge id="-E26" sampledSeconds="588.79" traveltime="60.32" overlapTraveltime="62.04" density="7.22" laneDensity="7.22" occupancy="3.56" waitingTime="432.00" timeLoss="511.47" speed="1.80" speedRelative="0.13" departed="10" arrived="0" entered="0" left="9" laneChangedFrom="0" laneChangedTo="0"/>
        <edge id="-E3" sampledSeconds="237.73" traveltime="62.86" overlapTraveltime="63.74" density="4.41" laneDensity="4.41" occupancy="2.19" waitingTime="193.00" timeLoss="216.70" speed="1.18" speedRelative="0.09" departed="4" arrived="0" entered="0" left="4" laneChangedFrom="0" laneChangedTo="0"/>
        <edge id="-E33" sampledSeconds="910.88" traveltime="73.38" overlapTraveltime="74.86" density="14.57" laneDensity="14.57" occupancy="7.22" waitingTime="732.00" timeLoss="831.23" speed="1.16" speedRelative="0.08" departed="13" arrived="0" entered="0" left="12" laneChangedFrom="0" laneChangedTo="0"/>
        <edge id="-E34.13" sampledSeconds="383.95" traveltime="31.02" overlapTraveltime="32.08" density="2.40" laneDensity="0.40" occupancy="0.20" waitingTime="162.00" timeLoss="202.55" speed="6.68" speedRelative="0.48" departed="0" arrived="0" entered="14" left="11" laneChangedFrom="3" laneChangedTo="3"/>
        <edge id="-E35" sampledSeconds="30.90" traveltime="4.76" overlapTraveltime="5.94" density="15.86" laneDensity="15.86" occupancy="2.46" waitingTime="22.00" timeLoss="26.22" speed="1.27" speedRelative="0.09" departed="0" arrived="0" entered="6" left="5" laneChangedFrom="0" laneChangedTo="0"/>
        <edge id="-E43" sampledSeconds="620.96" traveltime="65.79" overlapTraveltime="66.66" density="11.69" laneDensity="5.84" occupancy="2.90" waitingTime="496.00" timeLoss="567.77" speed="1.12" speedRelative="0.08" departed="10" arrived="0" entered="0" left="10" laneChangedFrom="4" laneChangedTo="4"/>
        <edge id="-E5" sampledSeconds="728.77" traveltime="78.68" overlapTraveltime="79.92" density="17.89" laneDensity="8.95" occupancy="4.44" waitingTime="626.00" timeLoss="691.16" speed="0.73" speedRelative="0.05" departed="12" arrived="0" entered="0" left="9" laneChangedFrom="8" laneChangedTo="8"/>
        <edge id="E0" sampledSeconds="196.45" traveltime="96.67" overlapTraveltime="98.23" density="46.41" laneDensity="46.41" occupancy="20.80" waitingTime="187.00" timeLoss="193.98" speed="0.11" speedRelative="0.01" departed="0" arrived="0" entered="2" left="2" laneChangedFrom="0" laneChangedTo="0"/>
        <edge id="E1" sampledSeconds="112.69" traveltime="5.89" overlapTraveltime="6.26" density="2.00" laneDensity="0.50" occupancy="0.23" waitingTime="0.00" timeLoss="11.65" speed="12.55" speedRelative="0.90" departed="0" arrived="0" entered="18" left="18" laneChangedFrom="0" laneChangedTo="0"/>
        <edge id="E1.82" sampledSeconds="65.95" traveltime="4.16" overlapTraveltime="4.71" density="5.04" laneDensity="1.26" occupancy="0.57" waitingTime="35.00" timeLoss="42.36" speed="4.70" speedRelative="0.34" departed="0" arrived="0" entered="14" left="14" laneChangedFrom="0" laneChangedTo="0"/>
        <edge id="E10" sampledSeconds="16.36" traveltime="3.93" overlapTraveltime="4.30" density="0.44" laneDensity="0.44" occupancy="0.20" waitingTime="0.00" timeLoss="2.54" speed="12.56" speedRelative="0.90" departed="0" arrived="4" entered="4" left="0" laneChangedFrom="0" laneChangedTo="0"/>
        <edge id="E12" sampledSeconds="581.87" traveltime="65.24" overlapTraveltime="66.99" density="5.38" laneDensity="5.38" occupancy="2.66" waitingTime="406.00" timeLoss="491.47" speed="2.19" speedRelative="0.16" departed="9" arrived="0" entered="0" left="9" laneChangedFrom="0" laneChangedTo="0"/>
        <edge id="E12.39" sampledSeconds="97.71" traveltime="6.19" overlapTraveltime="6.56" density="1.59" laneDensity="0.53" occupancy="0.25" waitingTime="0.00" timeLoss="8.24" speed="12.99" speedRelative="0.94" departed="0" arrived="15" entered="15" left="0" laneChangedFrom="0" laneChangedTo="0"/>
        <edge id="E13" sampledSeconds="490.32" traveltime="49.19" overlapTraveltime="50.70" density="4.28" laneDensity="4.28" occupancy="2.11" waitingTime="300.00" timeLoss="388.61" speed="3.06" speedRelative="0.22" departed="10" arrived="0" entered="0" left="10" laneChangedFrom="0" laneChangedTo="0"/>
        <edge id="E13.40" sampledSeconds="90.94" traveltime="12.71" overlapTraveltime="13.08" density="0.71" laneDensity="0.24" occupancy="0.12" waitingTime="0.00" timeLoss="4.60" speed="13.18" speedRelative="0.95" departed="0" arrived="7" entered="7" left="0" laneChangedFrom="0" laneChangedTo="0"/>
        <edge id="E16" sampledSeconds="868.39" traveltime="55.24" overlapTraveltime="56.19" density="4.51" laneDensity="1.50" occupancy="0.74" waitingTime="502.00" timeLoss="582.74" speed="4.58" speedRelative="0.33" departed="0" arrived="0" entered="16" left="14" laneChangedFrom="14" laneChangedTo="14"/>
        <edge id="E19" sampledSeconds="1367.72" traveltime="88.15" overlapTraveltime="90.14" density="10.96" laneDensity="3.65" occupancy="1.82" waitingTime="1047.00" timeLoss="1189.08" speed="1.87" speedRelative="0.13" departed="16" arrived="0" entered="0" left="13" laneChangedFrom="7" laneChangedTo="7"/>
        <edge id="E2" sampledSeconds="183.91" traveltime="13.65" overlapTraveltime="14.15" density="1.76" laneDensity="0.59" occupancy="0.28" waitingTime="38.00" timeLoss="54.08" speed="10.02" speedRelative="0.72" departed="0" arrived="0" entered="13" left="13" laneChangedFrom="5" laneChangedTo="5"/>
        <edge id="E21" sampledSeconds="87.64" traveltime="11.93" overlapTraveltime="12.84" density="3.92" laneDensity="1.31" occupancy="0.63" waitingTime="59.00" timeLoss="71.03" speed="2.67" speedRelative="0.19" departed="0" arrived="0" entered="7" left="6" laneChangedFrom="0" laneChangedTo="0"/>
        <edge id="E22" sampledSeconds="879.38" traveltime="78.28" overlapTraveltime="80.01" density="15.66" laneDensity="3.92" occupancy="1.95" waitingTime="745.00" timeLoss="818.00" speed="0.98" speedRelative="0.07" departed="12" arrived="0" entered="0" left="9" laneChangedFrom="7" laneChangedTo="7"/>
        <edge id="E24" sampledSeconds="791.96" traveltime="62.64" overlapTraveltime="64.65" density="9.48" laneDensity="1.90" occupancy="0.94" waitingTime="609.00" timeLoss="685.92" speed="1.77" speedRelative="0.13" departed="13" arrived="0" entered="0" left="11" laneChangedFrom="27" laneChangedTo="27"/>
        <edge id="E26" sampledSeconds="78.83" traveltime="8.48" overlapTraveltime="8.87" density="0.97" laneDensity="0.97" occupancy="0.46" waitingTime="0.00" timeLoss="8.41" speed="12.60" speedRelative="0.91" departed="0" arrived="9" entered="9" left="0" laneChangedFrom="0" laneChangedTo="0"/>
        <edge id="E27" sampledSeconds="129.98" traveltime="9.64" overlapTraveltime="10.04" density="1.42" laneDensity="0.35" occupancy="0.17" waitingTime="0.00" timeLoss="9.60" speed="12.47" speedRelative="0.90" departed="0" arrived="13" entered="13" left="0" laneChangedFrom="0" laneChangedTo="0"/>
        <edge id="E28" sampledSeconds="208.36" traveltime="25.49" overlapTraveltime="26.32" density="1.12" laneDensity="0.28" occupancy="0.14" waitingTime="38.00" timeLoss="72.03" speed="9.43" speedRelative="0.68" departed="0" arrived="0" entered="10" left="7" laneChangedFrom="4" laneChangedTo="4"/>
        <edge id="E29" sampledSeconds="701.41" traveltime="57.69" overlapTraveltime="58.45" density="21.92" laneDensity="5.48" occupancy="2.71" waitingTime="635.00" timeLoss="660.18" speed="0.80" speedRelative="0.06" departed="0" arrived="0" entered="12" left="12" laneChangedFrom="3" laneChangedTo="3"/>
        <edge id="E3" sampledSeconds="36.04" traveltime="5.66" overlapTraveltime="6.02" density="0.67" laneDensity="0.67" occupancy="0.31" waitingTime="0.00" timeLoss="4.52" speed="12.54" speedRelative="0.90" departed="0" arrived="6" entered="6" left="0" laneChangedFrom="0" laneChangedTo="0"/>
        <edge id="E30" sampledSeconds="959.15" traveltime="86.83" overlapTraveltime="87.84" density="10.55" laneDensity="2.64" occupancy="1.31" waitingTime="775.00" timeLoss="856.03" speed="1.41" speedRelative="0.10" departed="12" arrived="0" entered="0" left="11" laneChangedFrom="22" laneChangedTo="22"/>
        <edge id="E31" sampledSeconds="92.56" traveltime="8.99" overlapTraveltime="9.39" density="1.10" laneDensity="0.27" occupancy="0.13" waitingTime="0.00" timeLoss="8.86" speed="12.27" speedRelative="0.88" departed="0" arrived="10" entered="10" left="0" laneChangedFrom="0" laneChangedTo="0"/>
        <edge id="E32" sampledSeconds="1820.16" traveltime="110.83" overlapTraveltime="112.64" density="19.84" laneDensity="4.96" occupancy="2.47" waitingTime="1553.00" timeLoss="1675.73" speed="1.11" speedRelative="0.08" departed="17" arrived="0" entered="0" left="14" laneChangedFrom="27" laneChangedTo="27"/>
        <edge id="E33" sampledSeconds="12.74" traveltime="6.06" overlapTraveltime="6.43" density="0.20" laneDensity="0.20" occupancy="0.10" waitingTime="0.00" timeLoss="0.66" speed="13.50" speedRelative="0.97" departed="0" arrived="2" entered="2" left="0" laneChangedFrom="0" laneChangedTo="0"/>
        <edge id="E34" sampledSeconds="325.97" traveltime="18.48" overlapTraveltime="19.17" density="2.04" laneDensity="0.51" occupancy="0.25" waitingTime="33.00" timeLoss="67.19" speed="11.18" speedRelative="0.81" departed="0" arrived="0" entered="17" left="17" laneChangedFrom="12" laneChangedTo="12"/>
        <edge id="E340" sampledSeconds="329.86" traveltime="18.30" overlapTraveltime="19.40" density="163.54" laneDensity="40.89" occupancy="6.70" waitingTime="286.00" timeLoss="319.41" speed="0.39" speedRelative="0.03" departed="0" arrived="0" entered="17" left="17" laneChangedFrom="4" laneChangedTo="4"/>
        <edge id="E35" sampledSeconds="288.40" traveltime="109.50" overlapTraveltime="130.79" density="148.04" laneDensity="74.02" occupancy="11.43" waitingTime="277.00" timeLoss="287.24" speed="0.06" speedRelative="0.00" departed="0" arrived="0" entered="3" left="2" laneChangedFrom="2" laneChangedTo="2"/>
        <edge id="E35.61" sampledSeconds="537.01" traveltime="48.05" overlapTraveltime="48.95" density="2.89" laneDensity="0.48" occupancy="0.24" waitingTime="305.00" timeLoss="340.53" speed="5.07" speedRelative="0.36" departed="0" arrived="0" entered="11" left="10" laneChangedFrom="15" laneChangedTo="15"/>
        <edge id="E36" sampledSeconds="13.83" traveltime="1.00" overlapTraveltime="1.38" density="1.45" laneDensity="0.24" occupancy="0.09" waitingTime="0.00" timeLoss="1.43" speed="12.64" speedRelative="0.91" departed="0" arrived="0" entered="10" left="10" laneChangedFrom="0" laneChangedTo="0"/>
        <edge id="E36.31" sampledSeconds="8.52" traveltime="2.31" overlapTraveltime="2.84" density="0.38" laneDensity="0.19" occupancy="0.08" waitingTime="0.00" timeLoss="0.57" speed="12.03" speedRelative="0.87" departed="0" arrived="0" entered="3" left="3" laneChangedFrom="0" laneChangedTo="0"/>
        <edge id="E37" sampledSeconds="118.36" traveltime="9.62" overlapTraveltime="10.00" density="1.30" laneDensity="0.22" occupancy="0.10" waitingTime="0.00" timeLoss="11.72" speed="12.39" speedRelative="0.89" departed="0" arrived="12" entered="12" left="0" laneChangedFrom="1" laneChangedTo="1"/>
        <edge id="E4" sampledSeconds="479.55" traveltime="37.52" overlapTraveltime="119.89" density="31.13" laneDensity="31.13" occupancy="14.16" waitingTime="457.00" timeLoss="472.76" speed="0.21" speedRelative="0.02" departed="0" arrived="0" entered="4" left="4" laneChangedFrom="0" laneChangedTo="0"/>
        <edge id="E40" sampledSeconds="563.15" traveltime="28.87" overlapTraveltime="29.64" density="2.60" laneDensity="0.65" occupancy="0.32" waitingTime="105.00" timeLoss="173.22" speed="9.72" speedRelative="0.70" departed="0" arrived="0" entered="19" left="19" laneChangedFrom="25" laneChangedTo="25"/>
        <edge id="E41" sampledSeconds="363.59" traveltime="25.29" overlapTraveltime="25.97" density="1.69" laneDensity="0.56" occupancy="0.28" waitingTime="52.00" timeLoss="82.60" speed="11.02" speedRelative="0.79" departed="0" arrived="0" entered="14" left="14" laneChangedFrom="9" laneChangedTo="9"/>
        <edge id="E42" sampledSeconds="8.34" traveltime="0.02" overlapTraveltime="0.60" density="54.58" laneDensity="18.19" occupancy="0.35" waitingTime="0.00" timeLoss="3.20" speed="8.73" speedRelative="0.63" departed="0" arrived="0" entered="14" left="14" laneChangedFrom="1" laneChangedTo="1"/>
        <edge id="E43" sampledSeconds="36.95" traveltime="5.86" overlapTraveltime="6.22" density="0.70" laneDensity="0.35" occupancy="0.16" waitingTime="0.00" timeLoss="6.37" speed="11.98" speedRelative="0.86" departed="0" arrived="6" entered="6" left="0" laneChangedFrom="0" laneChangedTo="0"/>
        <edge id="E44.40" sampledSeconds="222.56" traveltime="11.38" overlapTraveltime="11.75" density="1.91" laneDensity="0.64" occupancy="0.31" waitingTime="0.00" timeLoss="13.19" speed="13.43" speedRelative="0.97" departed="0" arrived="19" entered="19" left="0" laneChangedFrom="0" laneChangedTo="0"/>
        <edge id="E45" sampledSeconds="13.15" traveltime="1.25" overlapTraveltime="1.64" density="1.12" laneDensity="0.28" occupancy="0.11" waitingTime="0.00" timeLoss="1.10" speed="12.36" speedRelative="0.89" departed="0" arrived="0" entered="8" left="8" laneChangedFrom="1" laneChangedTo="1"/>
        <edge id="E45.60" sampledSeconds="1269.62" traveltime="69.42" overlapTraveltime="70.53" density="6.77" laneDensity="2.26" occupancy="1.12" waitingTime="840.00" timeLoss="940.07" speed="3.55" speedRelative="0.26" departed="0" arrived="0" entered="18" left="18" laneChangedFrom="7" laneChangedTo="7"/>
        <edge id="E48" sampledSeconds="78.51" traveltime="12.22" overlapTraveltime="13.08" density="3.43" laneDensity="0.86" occupancy="0.41" waitingTime="51.00" timeLoss="63.01" speed="2.67" speedRelative="0.19" departed="0" arrived="0" entered="6" left="6" laneChangedFrom="4" laneChangedTo="4"/>
        <edge id="E5" sampledSeconds="52.87" traveltime="4.93" overlapTraveltime="5.34" density="1.30" laneDensity="0.65" occupancy="0.29" waitingTime="0.00" timeLoss="9.16" speed="10.92" speedRelative="0.79" departed="0" arrived="10" entered="10" left="0" laneChangedFrom="0" laneChangedTo="0"/>
        <edge id="E50" sampledSeconds="483.99" traveltime="31.35" overlapTraveltime="32.27" density="22.90" laneDensity="5.73" occupancy="2.81" waitingTime="408.00" timeLoss="449.29" speed="1.01" speedRelative="0.07" departed="0" arrived="0" entered="15" left="15" laneChangedFrom="4" laneChangedTo="4"/>
        <edge id="E53.21" sampledSeconds="149.39" traveltime="7.00" overlapTraveltime="7.47" density="5.59" laneDensity="1.40" occupancy="0.65" waitingTime="70.00" timeLoss="93.42" speed="5.36" speedRelative="0.39" departed="0" arrived="0" entered="20" left="20" laneChangedFrom="11" laneChangedTo="11"/>
        <edge id="E57" sampledSeconds="165.55" traveltime="8.57" overlapTraveltime="9.20" density="8.99" laneDensity="3.00" occupancy="1.42" waitingTime="107.00" timeLoss="127.46" speed="3.16" speedRelative="0.23" departed="0" arrived="0" entered="18" left="18" laneChangedFrom="3" laneChangedTo="3"/>
        <edge id="E7" sampledSeconds="139.19" traveltime="23.07" overlapTraveltime="23.98" density="1.21" laneDensity="0.40" occupancy="0.20" waitingTime="42.00" timeLoss="72.26" speed="6.50" speedRelative="0.47" departed="6" arrived="0" entered="0" left="6" laneChangedFrom="0" laneChangedTo="0"/>
        <edge id="E9" sampledSeconds="5.35" traveltime="0.09" overlapTraveltime="1.34" density="35.01" laneDensity="35.01" occupancy="0.67" waitingTime="0.00" timeLoss="3.95" speed="3.89" speedRelative="0.28" departed="0" arrived="0" entered="4" left="4" laneChangedFrom="0" laneChangedTo="0"/>
    </interval>
</meandata>
